Random atoms - written for EnCodeVentor tutorial

1000 atoms
1 atom types
0.0 20.0 xlo xhi
0.0 20.0 ylo yhi
0.0 20.0 zlo zhi

Atoms

1 1 12.250458593756877 19.86525892734742 10.569126027114438
2 1 9.228803707128353 6.955351819237405 18.60429356496187
3 1 15.85036749256842 13.71082587601358 5.476206778188642
4 1 14.628677131319517 16.516091413132344 15.859978373146323
5 1 14.4309043149186 0.1822433514055577 17.130404827478728
6 1 19.478308505679575 19.57386644597112 11.774070143186172
7 1 7.417714536838746 18.9758102462099 6.1327236719965335
8 1 0.9618926811783068 17.36784550489986 10.747236486381283
9 1 13.793248116512164 4.245294891592399 19.324584886945225
10 1 11.05989498067869 5.526284727534659 17.526405952892585
11 1 5.969590628340149 4.503323759407598 4.739892629480133
12 1 3.2814196538085727 5.145007769091421 16.518450899576493
13 1 15.04687094293052 14.471050657524877 10.389008826389531
14 1 12.784817411595004 2.683003575592253 1.0063436625946798
15 1 3.7614377138767185 8.926312715200124 10.621037084184785
16 1 3.745228717545084 19.648669755339483 14.565256990137158
17 1 16.48501431681572 7.6782126050791355 15.40068601150942
18 1 3.8421808997109896 5.751367317121501 3.728067384439131
19 1 7.519708058700358 9.478263107222213 2.129966600465507
20 1 0.21572277337561507 9.565654841789392 3.6649364836314535
21 1 7.637694356426376 16.166707278224983 18.900920462639792
22 1 9.395746391696054 3.7071663812770983 4.575768411079723
23 1 7.531321323793552 8.053773679125237 6.9233194969987055
24 1 0.10793207959518991 5.114351836457301 7.193588610301553
25 1 0.5148727207241954 1.4719771774261936 10.033180105471525
26 1 0.9521431244257528 12.01782456561342 16.81987030952745
27 1 17.755850211972618 5.755402525361843 4.0927644797059415
28 1 7.119443867969874 5.489941233934346 4.820177344558942
29 1 8.940410888945117 4.853309455392387 2.0023977538241766
30 1 5.246780184900457 2.052585430099456 5.148655146942575
31 1 15.720658215193048 5.6261738737504485 17.780287049479554
32 1 14.636604754536842 4.430867250011524 10.758137068459938
33 1 17.823697177225025 0.09107033495026062 6.56236354621015
34 1 1.7534191753666861 0.06967751236393926 13.742305093219088
35 1 3.416757721297221 19.238893524138668 1.181155351527099
36 1 16.144480879899373 8.155870631304884 14.731211006140374
37 1 9.31131109254364 12.45178125326181 1.0629349139223776
38 1 10.923307174330464 19.19460936848971 2.1075347318279336
39 1 11.809786138115932 15.071527027372678 16.045902487957324
40 1 19.518386564953648 3.4614692543074432 12.665548437356769
41 1 3.564488966665127 8.543652422478011 6.188701154276504
42 1 7.358438231940234 6.111112929421301 4.6130053719452775
43 1 6.645880231408787 3.2963440643666053 2.052266158810674
44 1 16.725477505787207 16.175637044742842 3.097974393902072
45 1 6.910187396625023 4.4093974870570785 18.769023266398346
46 1 13.21224851189758 9.518682916794942 8.977467793717452
47 1 18.132244503913128 6.991854450781605 1.218471325443009
48 1 1.4706388557731942 12.156182283713537 6.667873236262299
49 1 1.6939074521727737 19.802396311985365 15.150145765825684
50 1 7.410844224861792 15.95677245327911 16.52031338631435
51 1 0.5888715804029077 5.047846146139394 11.536066595702316
52 1 4.618905554923547 16.04985073767513 12.321928092284217
53 1 6.167518980519344 7.289048226226313 11.137156186074634
54 1 12.480924529534494 11.07389914668861 16.366999703003586
55 1 15.310056493472446 3.337421686089803 6.014905262299834
56 1 17.701695450200376 13.00739837259142 1.851015303571053
57 1 6.203092965166914 18.47871704972 9.349455281016738
58 1 3.0494801767561164 1.3406395965880669 3.5934523919994477
59 1 18.064982545487474 11.976340671232675 12.23987882019955
60 1 11.76878275341479 13.788199889942616 13.360107573006
61 1 16.15817705837679 17.42463836000291 15.004380038044056
62 1 4.347655703546771 10.401463179925052 7.71359754833334
63 1 17.831045072528823 6.697195964312536 19.352547775464654
64 1 3.4015543636720014 5.210264572527508 13.76668300289137
65 1 3.9260883570737626 13.905316898898455 4.431488088591866
66 1 19.425022235786944 6.296101037337019 10.37909542392727
67 1 0.2964231571186904 9.89740688389478 18.548507811854606
68 1 8.200459543234821 13.21228157796858 2.124846623926593
69 1 13.002980737989224 16.36703615667996 6.3280173694197295
70 1 17.93827233237723 14.077655441210691 3.091694566255101
71 1 8.913257110635657 8.939307665062596 8.110912873699043
72 1 2.929866558746572 11.076574733905352 9.26118392211003
73 1 9.343733269520023 4.523479496697831 4.932912337039051
74 1 10.576064087496448 15.376749446470576 1.6232752734997602
75 1 16.162102659073106 1.2063984536867545 7.736352015268764
76 1 0.43054811015696304 16.163147046784317 2.330814523520661
77 1 14.881213079702444 19.042049073685522 2.0691556783484355
78 1 8.859654299093396 14.492803387525283 14.79511642790413
79 1 17.011682115935677 18.20462973186401 6.1423564385192915
80 1 8.048117751542975 1.554920575238663 2.134381701755901
81 1 7.496011670473903 3.8628394003452238 9.67774874189625
82 1 17.592307012270332 11.285542948546059 0.09963352453971064
83 1 12.423730454876251 0.8186472008576207 7.292762972145597
84 1 14.170611860727591 16.052115095921454 18.343547247766136
85 1 12.731786253055144 10.950020382778066 11.004938404944497
86 1 5.84968740404912 7.810861425269251 4.428006560078344
87 1 12.838337759568573 17.413031539480247 1.3416080919809703
88 1 3.8926377054262895 18.709611694147938 5.917708370969217
89 1 14.75585250197826 14.831474227504648 5.156465334762011
90 1 13.296407920347743 0.3323518141555759 19.43032401173992
91 1 1.5852746645337068 11.427027185535588 16.673264588929648
92 1 1.1702008871313252 12.67698814994629 0.46150225726224736
93 1 16.322196283305203 16.229954436682736 13.86584834586461
94 1 12.04842360836182 17.85754878249619 15.772721530367166
95 1 2.2263256444089152 7.866528592065571 17.82165556101987
96 1 14.024125375599748 12.552526860864276 11.448705224814386
97 1 12.221316334170204 15.66323289198521 13.52507306261767
98 1 5.085846639451621 14.18449238474567 9.878085488357126
99 1 13.479888916824109 13.481296635239605 10.98597063259744
100 1 0.8191251085520235 6.334132257398018 6.225505908318665
101 1 0.2903462778053689 4.99078975504291 7.638262133686569
102 1 2.019190352971356 0.545045759730376 12.815470520244796
103 1 1.895057530594253 2.4591041441388595 13.181618053155571
104 1 9.725500679473225 0.8428522815569872 14.820943316992125
105 1 11.693406501437323 10.135079344585199 16.511355406291667
106 1 0.5087950596979907 16.311640515487525 4.376601602776818
107 1 11.793642024151637 13.646729360665903 3.577227574008006
108 1 14.743896842671687 7.20640697404675 10.517347688803733
109 1 1.6742423027015785 16.14195813130001 4.4085408537860165
110 1 0.1939240025669342 18.729549860465077 12.368217956358134
111 1 0.3785989083233887 11.937550737805008 6.205932770983393
112 1 7.964369210741687 18.035224970918044 1.6670645323103672
113 1 0.8316754900823731 11.129922831025032 2.4226260418392043
114 1 16.570736962091775 6.684398513012124 5.030834814355332
115 1 10.513734560298944 8.96767275961026 4.4942585389908585
116 1 16.94677436618385 17.198184205744 17.576112195451717
117 1 18.780778666239765 2.1342937970494313 16.95914792880021
118 1 14.947785193937293 10.582952959154406 14.018422059058423
119 1 19.871102501019152 7.116230416887759 13.585329320095688
120 1 5.610109650353527 18.404828841072238 14.129382420214556
121 1 15.459300178277282 2.365129257865115 19.560266476372618
122 1 3.000093578788665 17.666819731550344 0.7686807158238795
123 1 14.456870732698468 8.109381084675862 6.632796410725326
124 1 6.444681332067841 14.9411590663797 5.098618262975041
125 1 2.335630103287767 14.328215059445528 14.776415872975225
126 1 13.805069708262723 2.665791986571766 18.501330736916525
127 1 15.901405675016848 5.581162561641317 14.14402194047617
128 1 5.815489493721038 14.228870758237306 18.504037891283275
129 1 18.897473022647986 15.742538395388879 9.795684141374101
130 1 16.63584615704721 12.737940196893472 7.8339559016179745
131 1 10.908839332863828 19.06842703390373 14.134881496522208
132 1 17.49306586285154 15.36966873883495 4.055855051465329
133 1 18.040022027192908 5.595758876278383 4.905612133639165
134 1 1.718437954010208 1.0364930656662374 15.042336674964998
135 1 8.0614796546859 5.829922174522226 13.442055051959061
136 1 6.788216949018768 15.909627152259475 6.833464597309183
137 1 17.69925868739413 5.025855618756383 10.03279805804685
138 1 17.239742144336116 7.8616579915052025 19.50344986562095
139 1 7.837030084371892 4.172745401620761 5.141926994983397
140 1 5.872473519169999 12.267627264241598 13.695894211573677
141 1 1.980901777040418 11.961247540429047 14.212919310628216
142 1 6.087139044818071 1.7489602581858232 6.131637271461326
143 1 2.925231117269711 10.825496031940613 17.400540423842923
144 1 15.065892067784578 16.589331096015545 6.8178500367045665
145 1 15.628310824373337 17.46948266013049 9.123179239848117
146 1 7.430140158226797 7.182958566456213 14.369527635255878
147 1 11.544583561494191 18.356194744099184 17.110978404529543
148 1 2.7928417288872565 12.689150902957362 1.0380958394455209
149 1 11.296232372518453 8.811989252924334 4.141955081768705
150 1 4.919184585398764 11.388270852577776 3.0164067616140278
151 1 16.14960183089388 8.41138192799274 6.611268679930875
152 1 5.401405125642578 19.164744812943272 14.46261417782056
153 1 8.621218670289233 15.379101708710344 12.89135879661966
154 1 9.852643349772613 18.943941660279165 1.1183892014246855
155 1 18.644591889747026 15.546863658960252 14.08398086983308
156 1 16.985046276227934 18.776344775537325 3.0469325250654933
157 1 3.9257541639189286 2.9364360983768267 18.543658704652884
158 1 13.377714851272984 2.0588145957587822 6.716030053680456
159 1 19.00945068986661 12.223724035624295 3.629546668960708
160 1 16.82355586657547 13.687752839250681 15.536825535606717
161 1 10.98526400517243 1.470737003931526 7.910259356411851
162 1 4.772097838521372 3.3193028195613428 5.394382809144833
163 1 15.541569400051161 1.9442252025716544 4.474220878541915
164 1 6.115671038692552 6.727785302553508 2.3321973027806053
165 1 0.9590241457399906 4.623361706783074 14.600930852559827
166 1 11.505980549965928 12.864073665256829 0.8432669064474174
167 1 15.112301446834813 3.689882845729884 2.9969732052464293
168 1 6.344179190486761 14.25547801893754 9.293532876476789
169 1 6.851335247543695 12.359206361211413 19.88011613918814
170 1 11.873632427275648 4.494993717404663 16.47971920219701
171 1 16.64949600137489 14.753568347396397 13.008026608478321
172 1 5.957909602920692 15.85936197005795 4.904633419240398
173 1 2.3264102367783224 12.844423365976452 18.41464375654481
174 1 11.040618362506901 15.513817557010864 1.9776262989961846
175 1 19.173398656417863 13.6017499974627 7.255162694118658
176 1 16.02064759914708 19.08656661196566 15.398420941490812
177 1 15.22419232438665 12.800466264039711 3.409554797107728
178 1 10.448619044207739 18.7166112069529 5.6395762758197225
179 1 4.730840293981458 5.558918558711468 13.514353292534807
180 1 8.198410578766367 11.624550165187006 1.5857559012160327
181 1 6.579900023610808 13.052978353574415 10.659641270672822
182 1 5.76078252919163 0.8021040897281617 0.644806947463421
183 1 7.1885001308000795 19.302675434125476 13.175848409395375
184 1 12.671372715881537 2.4423392791080056 13.571184388930547
185 1 14.960595357329993 0.8403376252855144 16.465216821721853
186 1 1.806265504104767 2.957814390159841 13.059054336592975
187 1 16.698149842995655 8.47968554356725 18.475849271602453
188 1 13.188985693999005 11.82657547583412 2.380703890964684
189 1 9.500412437243046 1.6520188585955564 7.923656910399968
190 1 7.9069108755720885 6.040745145258817 9.567598514279553
191 1 5.653202043157717 15.98860683356974 14.401326105660207
192 1 19.544493640526827 13.629326232054364 3.8922289292869183
193 1 11.1976419083242 17.32633100873934 14.811409457895097
194 1 17.273649184249653 5.274917687504801 7.097290175622149
195 1 2.933055309874064 18.529184857197517 11.281204856751083
196 1 0.4524399081892305 0.8742000573277253 9.588369791014342
197 1 12.976557209887954 3.900699808653487 1.9175982256781388
198 1 11.161321995603416 19.586521246982226 7.481336432765366
199 1 1.548336156282819 9.066296145392513 15.77604368532652
200 1 10.54359266331733 4.870002021779998 2.350333183230997
201 1 14.155525930424249 7.561517114242113 3.937830232043975
202 1 16.782230928551957 17.7159748334293 2.4629216872125315
203 1 12.168114062281433 0.7713497454083695 4.0296680218042695
204 1 12.680944224601694 15.782862524605202 19.695793352194915
205 1 2.798762202714702 17.202899101273292 6.971381294967776
206 1 9.926784316247916 6.0697215754611715 4.5475638156993
207 1 17.552016102036166 5.07515984613277 6.590415729106375
208 1 10.012601111150802 13.39802917671152 10.479363662436615
209 1 7.956757780791128 10.51717131744338 17.715587944824186
210 1 13.084951993113414 14.612064902554625 1.9313299513110938
211 1 15.565764719201594 3.203819628450264 10.803846947641418
212 1 5.707685929073579 18.01648799085498 14.797647789298495
213 1 3.603869501468706 11.069796277884906 0.9557125256119847
214 1 17.216818251771418 13.862833859078112 15.765687718473945
215 1 9.426189471306435 9.535591887684994 17.131570709829827
216 1 1.9284943109565766 10.340426166768879 4.990538079182169
217 1 6.9045601298667485 5.211178920008712 16.530355587865408
218 1 19.936806517452577 12.587482572852009 5.752102365878573
219 1 18.911948116904398 7.464841733172507 8.491416927253617
220 1 13.636974860699961 9.90724273902317 10.135932147310838
221 1 3.1684383499002444 11.179599725638635 11.298265961090209
222 1 18.989954698107308 19.34941714843258 19.321621510315875
223 1 9.668735011574245 14.55528813093752 13.162059382162926
224 1 9.775883414885843 6.051994685014206 18.135588598462093
225 1 4.67120893228077 13.077546770555575 9.631848490099678
226 1 10.170221052692503 17.91255800574745 15.844335788754547
227 1 16.263230534668512 2.2676346882839593 13.859509790339759
228 1 11.13629478923654 11.195531588531155 15.833197934861396
229 1 4.757926164570067 4.903864103599274 14.371454535490209
230 1 8.494291559091023 19.483704767123324 4.192608902192059
231 1 15.324960173460404 5.012158709964057 14.746152154592602
232 1 4.1769765442957585 5.247824573982898 11.314176518574303
233 1 14.137412242666777 17.372276055888413 1.228486391167507
234 1 17.068999956008135 14.28562268509552 3.0775826461054434
235 1 5.491051079653593 10.201699651455325 11.963230266008281
236 1 18.851936155299192 12.79316290845497 10.066265593176706
237 1 19.057123659029287 7.17514558806065 0.8851629985925458
238 1 6.858551769109487 17.45075416999549 0.8007803228682975
239 1 16.529336263439237 18.050008348117853 10.353765120785487
240 1 19.72403992572234 7.980552696459686 3.000022709068111
241 1 1.3835241843851942 1.6099075329649715 9.410564702831447
242 1 19.654373049522025 2.4705587833998455 10.81417267671166
243 1 14.641012024214126 11.75523601554393 9.206808075918818
244 1 7.1183682503281815 6.07201533129561 3.7516559773692326
245 1 16.74258098377903 9.89816855650252 1.9869663926396708
246 1 10.209020361133936 4.321865284979025 10.115696733769672
247 1 15.072150891690422 12.914337012615281 18.97549133129986
248 1 7.385451982690987 2.001073813640162 18.260375867145815
249 1 17.364388250091967 9.083477150629093 9.192826218312522
250 1 13.353368272255421 7.091027660497195 19.2310132635599
251 1 13.138013003071375 4.278720651081434 13.95759195490311
252 1 11.979611600129852 5.81855148161778 1.3931541225016075
253 1 2.3614631838594535 8.271149584895083 18.5732663374304
254 1 19.767366962802633 15.559766624091884 5.374064110197669
255 1 8.10855114671792 1.0418969108789966 14.988589398560011
256 1 14.626396404155447 13.658703665351437 1.5320565795125862
257 1 15.57738025061826 4.624733520943796 15.070313720346968
258 1 17.21182242701345 17.053889267384793 3.4200768249072255
259 1 17.905639866901307 1.6308509143273064 19.160540473313656
260 1 12.907699426131598 9.368887192914702 18.080100302201508
261 1 19.708038364928697 7.176151321617084 6.2579655760611725
262 1 16.421726038717924 4.80998370275622 18.04291141297923
263 1 14.762735960551561 15.020309994777971 7.0725963842878325
264 1 13.283743697047425 4.063498787256825 10.580675518028324
265 1 15.368568890108369 11.472550688541865 3.851988694795714
266 1 8.95554716886316 2.604096583948994 10.754268782526479
267 1 6.26687147181533 7.675800237450017 5.921626379417186
268 1 15.756321690101219 2.5047484309307833 15.903919309984367
269 1 16.47290152196362 4.289075346096503 9.541375104487166
270 1 12.902717401026846 12.0510845379101 5.949393891774271
271 1 11.257685117421998 17.507590978913065 7.860212311126054
272 1 2.2350793885876663 13.989781072397633 0.9667702905728337
273 1 8.043576175658213 0.29536422073085156 3.2718531793364725
274 1 12.695472765831191 19.176905024445766 14.610577850121791
275 1 17.08142595655733 2.549248316451742 13.070749903061396
276 1 5.18204916947311 18.811360210373547 16.894231899905904
277 1 12.46903052468488 15.79716279873697 18.089146974860608
278 1 15.252925066858221 0.5786574975964687 12.530535916429113
279 1 15.230828238163381 4.15332192948362 7.563070126638001
280 1 15.893547997824466 4.267451279583576 2.6875538572998914
281 1 1.8753538374458367 8.016992604574124 12.852659509190152
282 1 1.9816477372054986 9.063989136302123 15.092184188025655
283 1 4.2089150241995865 0.14982148795489314 16.417052290742514
284 1 17.332348488256027 14.272298034365114 11.840435818435836
285 1 0.5493036452357702 19.975882760137825 17.522833197919567
286 1 6.525474154879294 8.633176864517196 17.69188234232218
287 1 5.168441127939429 6.8620112901959835 16.466703877445052
288 1 1.649195728187185 17.327979443424482 8.598590282150564
289 1 19.032038080716916 8.046772587268515 9.007918435410412
290 1 9.436962869011772 8.55749964072752 7.680879511266907
291 1 0.31823564813495464 5.910915076733804 19.908063836676504
292 1 14.385069113102233 4.753412127332066 3.532101885827781
293 1 0.29157746929893813 9.944206081101036 3.5034449425196645
294 1 3.829639790479693 16.536919513088947 3.897164970813536
295 1 8.418462260938737 6.497190939828322 3.9982722579373497
296 1 4.658273224815006 13.695371206522765 19.379898566420966
297 1 15.066197899962532 9.178051751796028 4.347000287638942
298 1 8.049342906163485 1.1406511481911519 19.935008938491702
299 1 9.128864862999915 5.903609318347554 11.256951218809629
300 1 1.2134157677244173 7.090149009403024 0.9196882749768354
301 1 16.846780427762486 2.3895645025340717 3.749149660190274
302 1 1.4219136625543083 2.7002259229873604 11.989629929834306
303 1 13.100505637024009 17.869797913848206 11.623498905752367
304 1 10.062642678370214 10.771618183146218 4.747982213084669
305 1 8.082257130029415 17.33154704597794 11.150426680898352
306 1 13.142430067536297 5.065513059162026 19.857687619457856
307 1 6.65929354225468 10.940172680561622 10.969981250692591
308 1 16.190581269914667 18.991205548377867 18.774793695820872
309 1 19.494103199517173 13.005883417934793 17.58864066093906
310 1 9.305759744932109 0.6663958000124359 13.564383616553805
311 1 14.434903219823457 19.507883715167978 6.308536669207612
312 1 0.2973747997523857 11.4107361783743 3.0279460391593327
313 1 18.832576428140516 15.79594773229723 4.550112677800313
314 1 14.868719406389852 0.4965186066275096 19.23484851763455
315 1 16.20123562596568 3.663695841918899 8.615476683152876
316 1 8.482694828964885 17.60103020431363 11.510072417369283
317 1 7.623659495493788 18.633523949704987 5.946960582175221
318 1 10.78378181132826 18.894711063684785 7.248828791835436
319 1 14.011302072433896 12.15205864671205 8.9911023582904
320 1 6.415904790107376 5.7869244053945845 6.109442416176842
321 1 9.754780105200796 0.620770596846667 1.478780006500211
322 1 19.574145770401675 7.792491686337131 11.498691947420031
323 1 18.124429755260763 8.227060080719731 10.232120752915195
324 1 1.8681472177223268 1.8434737608943585 16.370720964644562
325 1 8.307426391617804 8.307418276858824 8.260353428350179
326 1 11.854326029191665 0.47485015044914425 14.440646416097785
327 1 5.577808314928792 13.643032861043952 17.705479707619983
328 1 19.207201323866585 2.747346331707672 19.209884243101577
329 1 14.931043396394738 12.995203991148683 4.411671566078166
330 1 13.844852600874535 4.318196096770304 16.483880633909394
331 1 16.916590686181763 9.093457667810867 3.327343681383772
332 1 3.1257332265986615 7.720399029091396 7.060201560481816
333 1 15.880530423456635 14.883575429859246 7.351994826291291
334 1 4.761359312231301 18.66054247151193 14.395696583365151
335 1 18.509983333990753 19.101106115783814 1.7154205234244069
336 1 2.915491874822289 19.311549122561114 18.171407380872143
337 1 8.108079732634605 15.521236986562057 2.691227313223752
338 1 15.435978879329204 18.697840660713364 0.08803917551215124
339 1 15.752506159617287 12.126248295881624 0.6939751659877169
340 1 11.67278358733359 15.582692137794488 2.3098704243694956
341 1 14.433921790487057 1.8019289238546543 11.041509513611828
342 1 16.125145148520875 8.315356177539448 16.603655211369
343 1 7.55012616745125 1.5922576391901688 12.2299768998802
344 1 3.9363634463449437 2.834063136961764 3.028706434338302
345 1 8.998723737629714 7.298627250130226 13.869345583865371
346 1 13.726941926131722 13.368050070138048 16.960743337779093
347 1 0.29308467022664875 12.987594272946206 16.293308156722368
348 1 15.636400934469636 18.76896648787773 18.04558968037994
349 1 18.718439763846245 16.663402073249024 9.433129221274646
350 1 11.183642383385292 17.03178042791022 3.7695407904051392
351 1 9.017425403410247 19.15388161940168 17.771101879390812
352 1 3.2029813103271176 4.753128954556418 5.780424597152461
353 1 19.348647786587097 18.578714533351523 14.96470123622543
354 1 10.619973212845748 10.62317386103398 2.9357291437680777
355 1 1.4923720522387107 4.075677938266995 15.498829917486898
356 1 14.61541772086102 3.345849812172439 17.674895697486086
357 1 4.7998853687596155 14.633520897410408 17.63209735458463
358 1 8.365446421953013 11.036412693707529 16.191445825189682
359 1 14.159569674535685 11.252748918963443 18.522231421632803
360 1 17.27757939312554 10.337670510825847 13.393358037955787
361 1 4.7610699823805565 19.994059882600983 1.8056317174080183
362 1 4.5491401659700355 13.902955218604717 15.922522674587247
363 1 4.198563385952541 16.831458020172484 2.2591154077975784
364 1 6.447431342347554 0.039222325652426004 5.839451744062876
365 1 10.607532355091212 19.699690388195787 13.70917898488968
366 1 7.455791179728979 19.404622026041494 8.754767278059862
367 1 1.6393634961162196 7.99668738909026 5.592679237740108
368 1 9.76802861546127 0.5014779214254927 7.255862632178609
369 1 16.40452127476786 6.464706312242933 1.3256662944872488
370 1 2.9182179286871857 16.387883080485214 17.963869820216164
371 1 17.80484475689481 10.181112675277621 14.952235611774578
372 1 0.0679582488202346 14.724215362001003 8.440160157577104
373 1 4.180394515848704 12.423973979704876 13.560269798787509
374 1 4.690046515493698 13.311881033377006 13.468908478951294
375 1 17.3846677440451 2.530204333221917 3.0133733199656354
376 1 14.840846253285187 6.387226931730248 0.148593749536563
377 1 14.21244767584544 4.399027397780209 13.97202218574872
378 1 2.28294818433868 6.283951761912407 3.116562625582233
379 1 15.092426491759923 2.218216660646164 6.031607005661859
380 1 16.528933178300328 9.092587838948978 15.73708855009597
381 1 0.752793669663081 4.815602686614966 17.991916024227123
382 1 14.916665792282695 15.311791632061421 5.305758693351084
383 1 14.184516378589421 17.270367848734946 10.061804073958882
384 1 8.763405089935825 9.884464404753734 16.156297494592838
385 1 7.716368627384442 5.8595641233302835 19.691073498486144
386 1 7.231828857096636 10.35405866266193 13.475269249714291
387 1 9.421252758362131 3.7530296880565595 17.750154798465662
388 1 13.791257245581573 12.874253105764204 18.456526662888415
389 1 18.721952622759982 5.669011339945682 12.70901771677935
390 1 5.553883087864837 17.674085577136672 4.8751177353902975
391 1 18.326372801094248 5.953545731612142 15.533937189032965
392 1 17.094958966480913 13.965669460034142 17.496640772512816
393 1 15.735361511486367 10.400747701511282 8.343455369116999
394 1 0.42176624636952154 3.286454596647159 1.3964423694889905
395 1 5.287921357608925 9.587455435844813 5.207755909572008
396 1 1.7793473799340132 4.184538488043497 5.524767352445594
397 1 16.611195334082744 13.0632206961123 13.593076802446015
398 1 11.718384254406931 2.9471033783248424 2.7926154816927196
399 1 2.335487038855306 15.46336180336352 15.203140142772549
400 1 9.741527572391067 17.997669712086175 6.447602428400625
401 1 17.972226238503183 16.471995725041914 6.908255792354057
402 1 14.75873529238399 0.8978208225243867 12.8415417235348
403 1 13.169760379074738 2.718696758250061 5.772017542766843
404 1 15.333046776487523 6.754256447869375 1.4119767022341456
405 1 6.910603326704345 0.23514064036760818 19.855733702877494
406 1 10.047891518856042 9.26450638631443 4.058547569304249
407 1 9.786806177371501 4.741514965044555 0.532513464556843
408 1 10.218827223255055 4.005318026803339 7.3308700009686945
409 1 9.174309454644316 9.779014581208047 8.239384785587253
410 1 12.178565308532153 14.729660946874203 14.809358647629436
411 1 14.293821174635484 11.149047041236033 13.750115525822002
412 1 17.442346083052488 10.744111248112587 11.278168284501584
413 1 7.84326815318728 10.309179600320455 10.07845530321698
414 1 1.2917080458443109 16.174885495363892 9.871187087140903
415 1 7.0205473568948324 0.6478225753894651 18.02969162250484
416 1 3.802737089087249 17.563242996862655 7.84645292624087
417 1 17.954201511338418 17.35672011418242 13.61116933710747
418 1 17.000363799145113 15.2741119004879 2.6695997501605273
419 1 16.832317655848424 2.3374336276411523 19.319976764053074
420 1 8.774460528527255 8.931003522208712 19.354242258321154
421 1 3.9731629360288867 10.699681864526385 15.617128016412387
422 1 0.4642434544313345 19.500349755549006 4.195439710645665
423 1 13.319054813993631 17.69634068588452 4.541459635866123
424 1 17.93511286995594 19.181720784498822 14.336897763887277
425 1 1.0413017259558388 14.003968904249419 8.338015994897887
426 1 9.478358801282097 6.8944601825556395 9.293488931795832
427 1 13.298578669196175 14.736154087949707 6.925332663043018
428 1 17.29841383135392 0.14926784964515383 12.594218740064296
429 1 4.019701030870227 6.02757903332384 17.00219714984741
430 1 1.1321951837627853 7.969997134963698 19.558992047859004
431 1 12.238133640070314 19.86651231452091 6.13483001018603
432 1 10.77133726565776 18.13114197953396 15.987115495533274
433 1 7.989124421306495 16.150022586985457 3.8800906600592056
434 1 5.896942648924184 16.916691748422004 11.559464261205148
435 1 11.248619917077914 10.763200496195724 15.233375247315733
436 1 10.792858841710151 8.691983680509273 0.9793784626086666
437 1 18.761346488021488 19.5875710372395 18.09385323483356
438 1 9.790049811921024 15.994624132117652 2.633587871302059
439 1 16.96539442058144 5.68052268719089 19.709630168877442
440 1 18.039688585816073 14.860921622911672 1.4719374806365448
441 1 3.4498778820109655 14.77526463279354 13.999824570105195
442 1 17.040968083060648 8.559033659914633 3.9940653264897574
443 1 16.64056487307102 3.4794912878000517 11.070645047445835
444 1 17.70031633727665 0.14305516157359532 15.062747134155368
445 1 10.18265481982477 19.312284463513326 8.41840340696055
446 1 12.222442236470068 18.51643399960819 14.297002471049696
447 1 1.9113431981586482 12.250897547048357 9.22145559142615
448 1 7.084756396546279 17.378093756889548 0.7293418401959206
449 1 3.121584484514126 16.22433183573602 3.2312259134759147
450 1 9.991402336745256 7.014209396741153 5.806203309259066
451 1 16.28932991330626 14.568445132476036 12.813229437584972
452 1 10.779852042052928 5.6125416657803795 12.303467087357882
453 1 15.81673115695567 3.1685204147663737 5.274795274097944
454 1 18.324079440637536 8.050777663931099 17.118560347242486
455 1 14.339444810735834 11.519255285545412 17.32847072811119
456 1 9.907721974656065 11.742901694600853 13.568528457523517
457 1 10.362734347717925 14.408479944917028 6.260465823133654
458 1 19.600316224569486 5.714026188381105 18.295817766014693
459 1 16.58216894236754 0.5737870286407198 14.616674594393979
460 1 12.974268930361903 6.336923799129648 1.0616815970254834
461 1 0.8580533241170163 14.683236748120422 10.957290686247973
462 1 6.071430890032672 9.423606715194527 15.310730938911284
463 1 19.280117903910718 15.073019681828491 11.854884248674221
464 1 1.767281602468087 0.7808314366757152 17.663243352542676
465 1 13.722017446553343 12.88266296414211 3.1467698912950803
466 1 17.422160875783955 6.567051502663093 16.225209283794328
467 1 9.938047509895458 4.459666647732385 2.867595997022554
468 1 19.933050518958243 5.675801315251265 5.229147642837047
469 1 13.427665076440178 0.26278870742984184 18.415775314616294
470 1 3.731690732701598 0.45265202701834095 15.958618454414985
471 1 0.15697109476761506 16.700816113760965 14.33484877916566
472 1 9.155850716982844 15.151675211932915 18.723113218955408
473 1 12.655428478419315 6.54271974062617 16.29134436232907
474 1 16.284072613131766 18.186516320246174 6.916194754374545
475 1 2.103162654055124 16.383442683306487 8.446960960400018
476 1 19.16059596377465 14.20108727320477 16.263472605889802
477 1 18.818644648881172 13.182635721452625 14.316738031168466
478 1 7.72705140283906 19.466945533816695 19.76491018361902
479 1 16.32534679363652 5.885295046300902 0.8464303487143066
480 1 18.218397333271742 16.924854016724893 13.597143744590216
481 1 11.02168450245128 15.511264901410502 12.894238551580584
482 1 5.59066794013974 13.690959093701117 0.3808388618929781
483 1 0.3763425152168409 9.49836553755375 12.793175113816687
484 1 14.552549262575834 9.579698739994857 10.090167879896386
485 1 8.969981677634891 16.027399984259716 17.67343408667411
486 1 17.752214068993776 3.5430090720593754 10.534423876230495